s -t 1.000000000 -Hs 0 -Hd -2 -Ni 0 -Nx 0.00 -Ny 300.00 -Nz 100.00 -Ne -1.000000 -Nl AGT -Nw --- -Ma 0 -Md 0 -Ms 0 -Mt 0 -Is 0.0 -Id 2.0 -It cbr -Il 512 -If 0 -Ii 0 -Iv 32 -Pn cbr -Pi 0 -Pf 0 -Po 0 
r -t 1.000000000 -Hs 0 -Hd -2 -Ni 0 -Nx 0.00 -Ny 300.00 -Nz 100.00 -Ne -1.000000 -Nl RTR -Nw --- -Ma 0 -Md 0 -Ms 0 -Mt 0 -Is 0.0 -Id 2.0 -It cbr -Il 512 -If 0 -Ii 0 -Iv 32 -Pn cbr -Pi 0 -Pf 0 -Po 0 
s -t 1.000000000 -Hs 0 -Hd -2 -Ni 0 -Nx 0.00 -Ny 300.00 -Nz 100.00 -Ne -1.000000 -Nl RTR -Nw --- -Ma 0 -Md 0 -Ms 0 -Mt 0 -Is 0.255 -Id -1.255 -It AODV -Il 48 -If 0 -Ii 0 -Iv 30 -P aodv -Pt 0x2 -Ph 1 -Pb 1 -Pd 2 -Pds 0 -Ps 0 -Pss 4 -Pc REQUEST 
s -t 1.000535000 -Hs 0 -Hd -2 -Ni 0 -Nx 0.00 -Ny 300.00 -Nz 100.00 -Ne -1.000000 -Nl MAC -Nw --- -Ma 0 -Md ffffffff -Ms 0 -Mt 800 -Is 0.255 -Id -1.255 -It AODV -Il 106 -If 0 -Ii 0 -Iv 30 -P aodv -Pt 0x2 -Ph 1 -Pb 1 -Pd 2 -Pds 0 -Ps 0 -Pss 4 -Pc REQUEST 
r -t 1.001384167 -Hs 1 -Hd -2 -Ni 1 -Nx 350.00 -Ny 300.00 -Nz 100.00 -Ne -1.000000 -Nl MAC -Nw --- -Ma 0 -Md ffffffff -Ms 0 -Mt 800 -Is 0.255 -Id -1.255 -It AODV -Il 48 -If 0 -Ii 0 -Iv 30 -P aodv -Pt 0x2 -Ph 1 -Pb 1 -Pd 2 -Pds 0 -Ps 0 -Pss 4 -Pc REQUEST 
r -t 1.001409167 -Hs 1 -Hd -2 -Ni 1 -Nx 350.00 -Ny 300.00 -Nz 100.00 -Ne -1.000000 -Nl RTR -Nw --- -Ma 0 -Md ffffffff -Ms 0 -Mt 800 -Is 0.255 -Id -1.255 -It AODV -Il 48 -If 0 -Ii 0 -Iv 30 -P aodv -Pt 0x2 -Ph 1 -Pb 1 -Pd 2 -Pds 0 -Ps 0 -Pss 4 -Pc REQUEST 
s -t 1.001551213 -Hs 1 -Hd -2 -Ni 1 -Nx 350.00 -Ny 300.00 -Nz 100.00 -Ne -1.000000 -Nl RTR -Nw --- -Ma 0 -Md ffffffff -Ms 0 -Mt 800 -Is 1.255 -Id -1.255 -It AODV -Il 48 -If 0 -Ii 0 -Iv 29 -P aodv -Pt 0x2 -Ph 2 -Pb 1 -Pd 2 -Pds 0 -Ps 0 -Pss 4 -Pc REQUEST 
s -t 1.001926213 -Hs 1 -Hd -2 -Ni 1 -Nx 350.00 -Ny 300.00 -Nz 100.00 -Ne -1.000000 -Nl MAC -Nw --- -Ma 0 -Md ffffffff -Ms 1 -Mt 800 -Is 1.255 -Id -1.255 -It AODV -Il 106 -If 0 -Ii 0 -Iv 29 -P aodv -Pt 0x2 -Ph 2 -Pb 1 -Pd 2 -Pds 0 -Ps 0 -Pss 4 -Pc REQUEST 
r -t 1.002775380 -Hs 0 -Hd -2 -Ni 0 -Nx 0.00 -Ny 300.00 -Nz 100.00 -Ne -1.000000 -Nl MAC -Nw --- -Ma 0 -Md ffffffff -Ms 1 -Mt 800 -Is 1.255 -Id -1.255 -It AODV -Il 48 -If 0 -Ii 0 -Iv 29 -P aodv -Pt 0x2 -Ph 2 -Pb 1 -Pd 2 -Pds 0 -Ps 0 -Pss 4 -Pc REQUEST 
r -t 1.002775415 -Hs 2 -Hd -2 -Ni 2 -Nx 650.00 -Ny 500.00 -Nz 100.00 -Ne -1.000000 -Nl MAC -Nw --- -Ma 0 -Md ffffffff -Ms 1 -Mt 800 -Is 1.255 -Id -1.255 -It AODV -Il 48 -If 0 -Ii 0 -Iv 29 -P aodv -Pt 0x2 -Ph 2 -Pb 1 -Pd 2 -Pds 0 -Ps 0 -Pss 4 -Pc REQUEST 
r -t 1.002775415 -Hs 3 -Hd -2 -Ni 3 -Nx 650.00 -Ny 100.00 -Nz 100.00 -Ne -1.000000 -Nl MAC -Nw --- -Ma 0 -Md ffffffff -Ms 1 -Mt 800 -Is 1.255 -Id -1.255 -It AODV -Il 48 -If 0 -Ii 0 -Iv 29 -P aodv -Pt 0x2 -Ph 2 -Pb 1 -Pd 2 -Pds 0 -Ps 0 -Pss 4 -Pc REQUEST 
r -t 1.002800380 -Hs 0 -Hd -2 -Ni 0 -Nx 0.00 -Ny 300.00 -Nz 100.00 -Ne -1.000000 -Nl RTR -Nw --- -Ma 0 -Md ffffffff -Ms 1 -Mt 800 -Is 1.255 -Id -1.255 -It AODV -Il 48 -If 0 -Ii 0 -Iv 29 -P aodv -Pt 0x2 -Ph 2 -Pb 1 -Pd 2 -Pds 0 -Ps 0 -Pss 4 -Pc REQUEST 
r -t 1.002800415 -Hs 2 -Hd -2 -Ni 2 -Nx 650.00 -Ny 500.00 -Nz 100.00 -Ne -1.000000 -Nl RTR -Nw --- -Ma 0 -Md ffffffff -Ms 1 -Mt 800 -Is 1.255 -Id -1.255 -It AODV -Il 48 -If 0 -Ii 0 -Iv 29 -P aodv -Pt 0x2 -Ph 2 -Pb 1 -Pd 2 -Pds 0 -Ps 0 -Pss 4 -Pc REQUEST 
r -t 1.002800415 -Hs 3 -Hd -2 -Ni 3 -Nx 650.00 -Ny 100.00 -Nz 100.00 -Ne -1.000000 -Nl RTR -Nw --- -Ma 0 -Md ffffffff -Ms 1 -Mt 800 -Is 1.255 -Id -1.255 -It AODV -Il 48 -If 0 -Ii 0 -Iv 29 -P aodv -Pt 0x2 -Ph 2 -Pb 1 -Pd 2 -Pds 0 -Ps 0 -Pss 4 -Pc REQUEST 
s -t 1.002800415 -Hs 2 -Hd 1 -Ni 2 -Nx 650.00 -Ny 500.00 -Nz 100.00 -Ne -1.000000 -Nl RTR -Nw --- -Ma 0 -Md 0 -Ms 0 -Mt 0 -Is 2.255 -Id 0.255 -It AODV -Il 44 -If 0 -Ii 0 -Iv 30 -P aodv -Pt 0x4 -Ph 1 -Pd 2 -Pds 4 -Pl 10.000000 -Pc REPLY 
s -t 1.003015415 -Hs 2 -Hd -2 -Ni 2 -Nx 650.00 -Ny 500.00 -Nz 100.00 -Ne -1.000000 -Nl MAC -Nw --- -Ma 0 -Md ffffffff -Ms 2 -Mt 806 -P arp -Po REQUEST -Pms 2 -Ps 2 -Pmd 0 -Pd 1 
r -t 1.003704617 -Hs 1 -Hd -2 -Ni 1 -Nx 350.00 -Ny 300.00 -Nz 100.00 -Ne -1.000000 -Nl MAC -Nw --- -Ma 0 -Md ffffffff -Ms 2 -Mt 806 -P arp -Po REQUEST -Pms 2 -Ps 2 -Pmd 0 -Pd 1 
r -t 1.003704748 -Hs 3 -Hd -2 -Ni 3 -Nx 650.00 -Ny 100.00 -Nz 100.00 -Ne -1.000000 -Nl MAC -Nw --- -Ma 0 -Md ffffffff -Ms 2 -Mt 806 -P arp -Po REQUEST -Pms 2 -Ps 2 -Pmd 0 -Pd 1 
s -t 1.003894617 -Hs 1 -Hd -2 -Ni 1 -Nx 350.00 -Ny 300.00 -Nz 100.00 -Ne -1.000000 -Nl MAC -Nw --- -Ma 52e -Md 2 -Ms 1 -Mt 0 
r -t 1.004247819 -Hs 2 -Hd -2 -Ni 2 -Nx 650.00 -Ny 500.00 -Nz 100.00 -Ne -1.000000 -Nl MAC -Nw --- -Ma 52e -Md 2 -Ms 1 -Mt 0 
s -t 1.004257819 -Hs 2 -Hd -2 -Ni 2 -Nx 650.00 -Ny 500.00 -Nz 100.00 -Ne -1.000000 -Nl MAC -Nw --- -Ma 3f4 -Md 1 -Ms 0 -Mt 0 
r -t 1.004563021 -Hs 1 -Hd -2 -Ni 1 -Nx 350.00 -Ny 300.00 -Nz 100.00 -Ne -1.000000 -Nl MAC -Nw --- -Ma 3f4 -Md 1 -Ms 0 -Mt 0 
s -t 1.004573021 -Hs 1 -Hd -2 -Ni 1 -Nx 350.00 -Ny 300.00 -Nz 100.00 -Ne -1.000000 -Nl MAC -Nw --- -Ma 13a -Md 2 -Ms 1 -Mt 806 -P arp -Po REPLY -Pms 1 -Ps 1 -Pmd 2 -Pd 2 
r -t 1.005262223 -Hs 2 -Hd -2 -Ni 2 -Nx 650.00 -Ny 500.00 -Nz 100.00 -Ne -1.000000 -Nl MAC -Nw --- -Ma 13a -Md 2 -Ms 1 -Mt 806 -P arp -Po REPLY -Pms 1 -Ps 1 -Pmd 2 -Pd 2 
s -t 1.005272223 -Hs 2 -Hd -2 -Ni 2 -Nx 650.00 -Ny 500.00 -Nz 100.00 -Ne -1.000000 -Nl MAC -Nw --- -Ma 0 -Md 1 -Ms 0 -Mt 0 
r -t 1.005577424 -Hs 1 -Hd -2 -Ni 1 -Nx 350.00 -Ny 300.00 -Nz 100.00 -Ne -1.000000 -Nl MAC -Nw --- -Ma 0 -Md 1 -Ms 0 -Mt 0 
s -t 1.005686223 -Hs 2 -Hd -2 -Ni 2 -Nx 650.00 -Ny 500.00 -Nz 100.00 -Ne -1.000000 -Nl MAC -Nw --- -Ma 5ae -Md 1 -Ms 2 -Mt 0 
r -t 1.006039424 -Hs 1 -Hd -2 -Ni 1 -Nx 350.00 -Ny 300.00 -Nz 100.00 -Ne -1.000000 -Nl MAC -Nw --- -Ma 5ae -Md 1 -Ms 2 -Mt 0 
s -t 1.006049424 -Hs 1 -Hd -2 -Ni 1 -Nx 350.00 -Ny 300.00 -Nz 100.00 -Ne -1.000000 -Nl MAC -Nw --- -Ma 474 -Md 2 -Ms 0 -Mt 0 
r -t 1.006354626 -Hs 2 -Hd -2 -Ni 2 -Nx 650.00 -Ny 500.00 -Nz 100.00 -Ne -1.000000 -Nl MAC -Nw --- -Ma 474 -Md 2 -Ms 0 -Mt 0 
s -t 1.006364626 -Hs 2 -Hd 1 -Ni 2 -Nx 650.00 -Ny 500.00 -Nz 100.00 -Ne -1.000000 -Nl MAC -Nw --- -Ma 13a -Md 1 -Ms 2 -Mt 800 -Is 2.255 -Id 0.255 -It AODV -Il 102 -If 0 -Ii 0 -Iv 30 -P aodv -Pt 0x4 -Ph 1 -Pd 2 -Pds 4 -Pl 10.000000 -Pc REPLY 
r -t 1.007181828 -Hs 1 -Hd 1 -Ni 1 -Nx 350.00 -Ny 300.00 -Nz 100.00 -Ne -1.000000 -Nl MAC -Nw --- -Ma 13a -Md 1 -Ms 2 -Mt 800 -Is 2.255 -Id 0.255 -It AODV -Il 44 -If 0 -Ii 0 -Iv 30 -P aodv -Pt 0x4 -Ph 1 -Pd 2 -Pds 4 -Pl 10.000000 -Pc REPLY 
s -t 1.007191828 -Hs 1 -Hd -2 -Ni 1 -Nx 350.00 -Ny 300.00 -Nz 100.00 -Ne -1.000000 -Nl MAC -Nw --- -Ma 0 -Md 2 -Ms 0 -Mt 0 
r -t 1.007206828 -Hs 1 -Hd 1 -Ni 1 -Nx 350.00 -Ny 300.00 -Nz 100.00 -Ne -1.000000 -Nl RTR -Nw --- -Ma 13a -Md 1 -Ms 2 -Mt 800 -Is 2.255 -Id 0.255 -It AODV -Il 44 -If 0 -Ii 0 -Iv 30 -P aodv -Pt 0x4 -Ph 1 -Pd 2 -Pds 4 -Pl 10.000000 -Pc REPLY 
f -t 1.007206828 -Hs 1 -Hd 0 -Ni 1 -Nx 350.00 -Ny 300.00 -Nz 100.00 -Ne -1.000000 -Nl RTR -Nw --- -Ma 13a -Md 1 -Ms 2 -Mt 800 -Is 2.255 -Id 0.255 -It AODV -Il 44 -If 0 -Ii 0 -Iv 29 -P aodv -Pt 0x4 -Ph 2 -Pd 2 -Pds 4 -Pl 10.000000 -Pc REPLY 
r -t 1.007497030 -Hs 2 -Hd -2 -Ni 2 -Nx 650.00 -Ny 500.00 -Nz 100.00 -Ne -1.000000 -Nl MAC -Nw --- -Ma 0 -Md 2 -Ms 0 -Mt 0 
s -t 1.007745828 -Hs 1 -Hd -2 -Ni 1 -Nx 350.00 -Ny 300.00 -Nz 100.00 -Ne -1.000000 -Nl MAC -Nw --- -Ma 0 -Md ffffffff -Ms 1 -Mt 806 -P arp -Po REQUEST -Pms 1 -Ps 1 -Pmd 0 -Pd 0 
r -t 1.008434995 -Hs 0 -Hd -2 -Ni 0 -Nx 0.00 -Ny 300.00 -Nz 100.00 -Ne -1.000000 -Nl MAC -Nw --- -Ma 0 -Md ffffffff -Ms 1 -Mt 806 -P arp -Po REQUEST -Pms 1 -Ps 1 -Pmd 0 -Pd 0 
r -t 1.008435030 -Hs 2 -Hd -2 -Ni 2 -Nx 650.00 -Ny 500.00 -Nz 100.00 -Ne -1.000000 -Nl MAC -Nw --- -Ma 0 -Md ffffffff -Ms 1 -Mt 806 -P arp -Po REQUEST -Pms 1 -Ps 1 -Pmd 0 -Pd 0 
r -t 1.008435030 -Hs 3 -Hd -2 -Ni 3 -Nx 650.00 -Ny 100.00 -Nz 100.00 -Ne -1.000000 -Nl MAC -Nw --- -Ma 0 -Md ffffffff -Ms 1 -Mt 806 -P arp -Po REQUEST -Pms 1 -Ps 1 -Pmd 0 -Pd 0 
s -t 1.008729995 -Hs 0 -Hd -2 -Ni 0 -Nx 0.00 -Ny 300.00 -Nz 100.00 -Ne -1.000000 -Nl MAC -Nw --- -Ma 52e -Md 1 -Ms 0 -Mt 0 
r -t 1.009083161 -Hs 1 -Hd -2 -Ni 1 -Nx 350.00 -Ny 300.00 -Nz 100.00 -Ne -1.000000 -Nl MAC -Nw --- -Ma 52e -Md 1 -Ms 0 -Mt 0 
s -t 1.009093161 -Hs 1 -Hd -2 -Ni 1 -Nx 350.00 -Ny 300.00 -Nz 100.00 -Ne -1.000000 -Nl MAC -Nw --- -Ma 3f4 -Md 0 -Ms 0 -Mt 0 
r -t 1.009398328 -Hs 0 -Hd -2 -Ni 0 -Nx 0.00 -Ny 300.00 -Nz 100.00 -Ne -1.000000 -Nl MAC -Nw --- -Ma 3f4 -Md 0 -Ms 0 -Mt 0 
s -t 1.009408328 -Hs 0 -Hd -2 -Ni 0 -Nx 0.00 -Ny 300.00 -Nz 100.00 -Ne -1.000000 -Nl MAC -Nw --- -Ma 13a -Md 1 -Ms 0 -Mt 806 -P arp -Po REPLY -Pms 0 -Ps 0 -Pmd 1 -Pd 1 
r -t 1.010097495 -Hs 1 -Hd -2 -Ni 1 -Nx 350.00 -Ny 300.00 -Nz 100.00 -Ne -1.000000 -Nl MAC -Nw --- -Ma 13a -Md 1 -Ms 0 -Mt 806 -P arp -Po REPLY -Pms 0 -Ps 0 -Pmd 1 -Pd 1 
s -t 1.010107495 -Hs 1 -Hd -2 -Ni 1 -Nx 350.00 -Ny 300.00 -Nz 100.00 -Ne -1.000000 -Nl MAC -Nw --- -Ma 0 -Md 0 -Ms 0 -Mt 0 
r -t 1.010412661 -Hs 0 -Hd -2 -Ni 0 -Nx 0.00 -Ny 300.00 -Nz 100.00 -Ne -1.000000 -Nl MAC -Nw --- -Ma 0 -Md 0 -Ms 0 -Mt 0 
s -t 1.010481495 -Hs 1 -Hd -2 -Ni 1 -Nx 350.00 -Ny 300.00 -Nz 100.00 -Ne -1.000000 -Nl MAC -Nw --- -Ma 5ae -Md 0 -Ms 1 -Mt 0 
s -t 1.010791970 -Hs 3 -Hd -2 -Ni 3 -Nx 650.00 -Ny 100.00 -Nz 100.00 -Ne -1.000000 -Nl RTR -Nw --- -Ma 0 -Md ffffffff -Ms 1 -Mt 800 -Is 3.255 -Id -1.255 -It AODV -Il 48 -If 0 -Ii 0 -Iv 28 -P aodv -Pt 0x2 -Ph 3 -Pb 1 -Pd 2 -Pds 0 -Ps 0 -Pss 4 -Pc REQUEST 
r -t 1.010834661 -Hs 0 -Hd -2 -Ni 0 -Nx 0.00 -Ny 300.00 -Nz 100.00 -Ne -1.000000 -Nl MAC -Nw --- -Ma 5ae -Md 0 -Ms 1 -Mt 0 
s -t 1.010844661 -Hs 0 -Hd -2 -Ni 0 -Nx 0.00 -Ny 300.00 -Nz 100.00 -Ne -1.000000 -Nl MAC -Nw --- -Ma 474 -Md 1 -Ms 0 -Mt 0 
r -t 1.011149828 -Hs 1 -Hd -2 -Ni 1 -Nx 350.00 -Ny 300.00 -Nz 100.00 -Ne -1.000000 -Nl MAC -Nw --- -Ma 474 -Md 1 -Ms 0 -Mt 0 
s -t 1.011159828 -Hs 1 -Hd 0 -Ni 1 -Nx 350.00 -Ny 300.00 -Nz 100.00 -Ne -1.000000 -Nl MAC -Nw --- -Ma 13a -Md 0 -Ms 1 -Mt 800 -Is 2.255 -Id 0.255 -It AODV -Il 102 -If 0 -Ii 0 -Iv 29 -P aodv -Pt 0x4 -Ph 2 -Pd 2 -Pds 4 -Pl 10.000000 -Pc REPLY 
r -t 1.011976995 -Hs 0 -Hd 0 -Ni 0 -Nx 0.00 -Ny 300.00 -Nz 100.00 -Ne -1.000000 -Nl MAC -Nw --- -Ma 13a -Md 0 -Ms 1 -Mt 800 -Is 2.255 -Id 0.255 -It AODV -Il 44 -If 0 -Ii 0 -Iv 29 -P aodv -Pt 0x4 -Ph 2 -Pd 2 -Pds 4 -Pl 10.000000 -Pc REPLY 
s -t 1.011986995 -Hs 0 -Hd -2 -Ni 0 -Nx 0.00 -Ny 300.00 -Nz 100.00 -Ne -1.000000 -Nl MAC -Nw --- -Ma 0 -Md 1 -Ms 0 -Mt 0 
r -t 1.012001995 -Hs 0 -Hd 0 -Ni 0 -Nx 0.00 -Ny 300.00 -Nz 100.00 -Ne -1.000000 -Nl RTR -Nw --- -Ma 13a -Md 0 -Ms 1 -Mt 800 -Is 2.255 -Id 0.255 -It AODV -Il 44 -If 0 -Ii 0 -Iv 29 -P aodv -Pt 0x4 -Ph 2 -Pd 2 -Pds 4 -Pl 10.000000 -Pc REPLY 
s -t 1.012001995 -Hs 0 -Hd 1 -Ni 0 -Nx 0.00 -Ny 300.00 -Nz 100.00 -Ne -1.000000 -Nl RTR -Nw --- -Ma 0 -Md 0 -Ms 0 -Mt 0 -Is 0.0 -Id 2.0 -It cbr -Il 532 -If 0 -Ii 0 -Iv 30 -Pn cbr -Pi 0 -Pf 0 -Po 0 
r -t 1.012292161 -Hs 1 -Hd -2 -Ni 1 -Nx 350.00 -Ny 300.00 -Nz 100.00 -Ne -1.000000 -Nl MAC -Nw --- -Ma 0 -Md 1 -Ms 0 -Mt 0 
s -t 1.012380995 -Hs 0 -Hd -2 -Ni 0 -Nx 0.00 -Ny 300.00 -Nz 100.00 -Ne -1.000000 -Nl MAC -Nw --- -Ma 14ee -Md 1 -Ms 0 -Mt 0 
r -t 1.012734161 -Hs 1 -Hd -2 -Ni 1 -Nx 350.00 -Ny 300.00 -Nz 100.00 -Ne -1.000000 -Nl MAC -Nw --- -Ma 14ee -Md 1 -Ms 0 -Mt 0 
s -t 1.012744161 -Hs 1 -Hd -2 -Ni 1 -Nx 350.00 -Ny 300.00 -Nz 100.00 -Ne -1.000000 -Nl MAC -Nw --- -Ma 13b4 -Md 0 -Ms 0 -Mt 0 
r -t 1.013049328 -Hs 0 -Hd -2 -Ni 0 -Nx 0.00 -Ny 300.00 -Nz 100.00 -Ne -1.000000 -Nl MAC -Nw --- -Ma 13b4 -Md 0 -Ms 0 -Mt 0 
s -t 1.013059328 -Hs 0 -Hd 1 -Ni 0 -Nx 0.00 -Ny 300.00 -Nz 100.00 -Ne -1.000000 -Nl MAC -Nw --- -Ma 13a -Md 1 -Ms 0 -Mt 800 -Is 0.0 -Id 2.0 -It cbr -Il 590 -If 0 -Ii 0 -Iv 30 -Pn cbr -Pi 0 -Pf 0 -Po 0 
r -t 1.017780495 -Hs 1 -Hd 1 -Ni 1 -Nx 350.00 -Ny 300.00 -Nz 100.00 -Ne -1.000000 -Nl MAC -Nw --- -Ma 13a -Md 1 -Ms 0 -Mt 800 -Is 0.0 -Id 2.0 -It cbr -Il 532 -If 0 -Ii 0 -Iv 30 -Pn cbr -Pi 0 -Pf 1 -Po 0 
s -t 1.017790495 -Hs 1 -Hd -2 -Ni 1 -Nx 350.00 -Ny 300.00 -Nz 100.00 -Ne -1.000000 -Nl MAC -Nw --- -Ma 0 -Md 0 -Ms 0 -Mt 0 
r -t 1.017805495 -Hs 1 -Hd 1 -Ni 1 -Nx 350.00 -Ny 300.00 -Nz 100.00 -Ne -1.000000 -Nl RTR -Nw --- -Ma 13a -Md 1 -Ms 0 -Mt 800 -Is 0.0 -Id 2.0 -It cbr -Il 532 -If 0 -Ii 0 -Iv 30 -Pn cbr -Pi 0 -Pf 1 -Po 0 
f -t 1.017805495 -Hs 1 -Hd 2 -Ni 1 -Nx 350.00 -Ny 300.00 -Nz 100.00 -Ne -1.000000 -Nl RTR -Nw --- -Ma 13a -Md 1 -Ms 0 -Mt 800 -Is 0.0 -Id 2.0 -It cbr -Il 532 -If 0 -Ii 0 -Iv 29 -Pn cbr -Pi 0 -Pf 1 -Po 0 
r -t 1.018095661 -Hs 0 -Hd -2 -Ni 0 -Nx 0.00 -Ny 300.00 -Nz 100.00 -Ne -1.000000 -Nl MAC -Nw --- -Ma 0 -Md 0 -Ms 0 -Mt 0 
s -t 1.018284495 -Hs 1 -Hd -2 -Ni 1 -Nx 350.00 -Ny 300.00 -Nz 100.00 -Ne -1.000000 -Nl MAC -Nw --- -Ma 14ee -Md 2 -Ms 1 -Mt 0 
s -t 1.018285697 -Hs 3 -Hd -2 -Ni 3 -Nx 650.00 -Ny 100.00 -Nz 100.00 -Ne -1.000000 -Nl MAC -Nw --- -Ma 0 -Md ffffffff -Ms 3 -Mt 800 -Is 3.255 -Id -1.255 -It AODV -Il 106 -If 0 -Ii 0 -Iv 28 -P aodv -Pt 0x2 -Ph 3 -Pb 1 -Pd 2 -Pds 0 -Ps 0 -Pss 4 -Pc REQUEST 
d -t 1.018287030 -Hs 2 -Hd -2 -Ni 2 -Nx 650.00 -Ny 500.00 -Nz 100.00 -Ne -1.000000 -Nl MAC -Nw COL -Ma 14ee -Md 2 -Ms 1 -Mt 0 
d -t 1.019135030 -Hs 2 -Hd -2 -Ni 2 -Nx 650.00 -Ny 500.00 -Nz 100.00 -Ne -1.000000 -Nl MAC -Nw COL -Ma 0 -Md ffffffff -Ms 3 -Mt 800 -Is 3.255 -Id -1.255 -It AODV -Il 106 -If 0 -Ii 0 -Iv 28 -P aodv -Pt 0x2 -Ph 3 -Pb 1 -Pd 2 -Pds 0 -Ps 0 -Pss 4 -Pc REQUEST 
s -t 1.019728898 -Hs 1 -Hd -2 -Ni 1 -Nx 350.00 -Ny 300.00 -Nz 100.00 -Ne -1.000000 -Nl MAC -Nw --- -Ma 14ee -Md 2 -Ms 1 -Mt 0 
r -t 1.020082100 -Hs 2 -Hd -2 -Ni 2 -Nx 650.00 -Ny 500.00 -Nz 100.00 -Ne -1.000000 -Nl MAC -Nw --- -Ma 14ee -Md 2 -Ms 1 -Mt 0 
s -t 1.020092100 -Hs 2 -Hd -2 -Ni 2 -Nx 650.00 -Ny 500.00 -Nz 100.00 -Ne -1.000000 -Nl MAC -Nw --- -Ma 13b4 -Md 1 -Ms 0 -Mt 0 
r -t 1.020397302 -Hs 1 -Hd -2 -Ni 1 -Nx 350.00 -Ny 300.00 -Nz 100.00 -Ne -1.000000 -Nl MAC -Nw --- -Ma 13b4 -Md 1 -Ms 0 -Mt 0 
s -t 1.020407302 -Hs 1 -Hd 2 -Ni 1 -Nx 350.00 -Ny 300.00 -Nz 100.00 -Ne -1.000000 -Nl MAC -Nw --- -Ma 13a -Md 2 -Ms 1 -Mt 800 -Is 0.0 -Id 2.0 -It cbr -Il 590 -If 0 -Ii 0 -Iv 29 -Pn cbr -Pi 0 -Pf 1 -Po 0 
r -t 1.025128504 -Hs 2 -Hd 2 -Ni 2 -Nx 650.00 -Ny 500.00 -Nz 100.00 -Ne -1.000000 -Nl MAC -Nw --- -Ma 13a -Md 2 -Ms 1 -Mt 800 -Is 0.0 -Id 2.0 -It cbr -Il 532 -If 0 -Ii 0 -Iv 29 -Pn cbr -Pi 0 -Pf 2 -Po 0 
s -t 1.025138504 -Hs 2 -Hd -2 -Ni 2 -Nx 650.00 -Ny 500.00 -Nz 100.00 -Ne -1.000000 -Nl MAC -Nw --- -Ma 0 -Md 1 -Ms 0 -Mt 0 
r -t 1.025153504 -Hs 2 -Hd 2 -Ni 2 -Nx 650.00 -Ny 500.00 -Nz 100.00 -Ne -1.000000 -Nl AGT -Nw --- -Ma 13a -Md 2 -Ms 1 -Mt 800 -Is 0.0 -Id 2.0 -It cbr -Il 532 -If 0 -Ii 0 -Iv 29 -Pn cbr -Pi 0 -Pf 2 -Po 0 
r -t 1.025443706 -Hs 1 -Hd -2 -Ni 1 -Nx 350.00 -Ny 300.00 -Nz 100.00 -Ne -1.000000 -Nl MAC -Nw --- -Ma 0 -Md 1 -Ms 0 -Mt 0 
s -t 1.100000000 -Hs 0 -Hd -2 -Ni 0 -Nx 0.00 -Ny 300.00 -Nz 100.00 -Ne -1.000000 -Nl AGT -Nw --- -Ma 0 -Md 0 -Ms 0 -Mt 0 -Is 0.0 -Id 2.0 -It cbr -Il 512 -If 0 -Ii 1 -Iv 32 -Pn cbr -Pi 1 -Pf 0 -Po 0 
r -t 1.100000000 -Hs 0 -Hd -2 -Ni 0 -Nx 0.00 -Ny 300.00 -Nz 100.00 -Ne -1.000000 -Nl RTR -Nw --- -Ma 0 -Md 0 -Ms 0 -Mt 0 -Is 0.0 -Id 2.0 -It cbr -Il 512 -If 0 -Ii 1 -Iv 32 -Pn cbr -Pi 1 -Pf 0 -Po 0 
s -t 1.100000000 -Hs 0 -Hd 1 -Ni 0 -Nx 0.00 -Ny 300.00 -Nz 100.00 -Ne -1.000000 -Nl RTR -Nw --- -Ma 0 -Md 0 -Ms 0 -Mt 0 -Is 0.0 -Id 2.0 -It cbr -Il 532 -If 0 -Ii 1 -Iv 30 -Pn cbr -Pi 1 -Pf 0 -Po 0 
s -t 1.100415000 -Hs 0 -Hd -2 -Ni 0 -Nx 0.00 -Ny 300.00 -Nz 100.00 -Ne -1.000000 -Nl MAC -Nw --- -Ma 14ee -Md 1 -Ms 0 -Mt 0 
r -t 1.100768167 -Hs 1 -Hd -2 -Ni 1 -Nx 350.00 -Ny 300.00 -Nz 100.00 -Ne -1.000000 -Nl MAC -Nw --- -Ma 14ee -Md 1 -Ms 0 -Mt 0 
s -t 1.100778167 -Hs 1 -Hd -2 -Ni 1 -Nx 350.00 -Ny 300.00 -Nz 100.00 -Ne -1.000000 -Nl MAC -Nw --- -Ma 13b4 -Md 0 -Ms 0 -Mt 0 
r -t 1.101083333 -Hs 0 -Hd -2 -Ni 0 -Nx 0.00 -Ny 300.00 -Nz 100.00 -Ne -1.000000 -Nl MAC -Nw --- -Ma 13b4 -Md 0 -Ms 0 -Mt 0 
s -t 1.101093333 -Hs 0 -Hd 1 -Ni 0 -Nx 0.00 -Ny 300.00 -Nz 100.00 -Ne -1.000000 -Nl MAC -Nw --- -Ma 13a -Md 1 -Ms 0 -Mt 800 -Is 0.0 -Id 2.0 -It cbr -Il 590 -If 0 -Ii 1 -Iv 30 -Pn cbr -Pi 1 -Pf 0 -Po 0 
r -t 1.105814500 -Hs 1 -Hd 1 -Ni 1 -Nx 350.00 -Ny 300.00 -Nz 100.00 -Ne -1.000000 -Nl MAC -Nw --- -Ma 13a -Md 1 -Ms 0 -Mt 800 -Is 0.0 -Id 2.0 -It cbr -Il 532 -If 0 -Ii 1 -Iv 30 -Pn cbr -Pi 1 -Pf 1 -Po 0 
s -t 1.105824500 -Hs 1 -Hd -2 -Ni 1 -Nx 350.00 -Ny 300.00 -Nz 100.00 -Ne -1.000000 -Nl MAC -Nw --- -Ma 0 -Md 0 -Ms 0 -Mt 0 
r -t 1.105839500 -Hs 1 -Hd 1 -Ni 1 -Nx 350.00 -Ny 300.00 -Nz 100.00 -Ne -1.000000 -Nl RTR -Nw --- -Ma 13a -Md 1 -Ms 0 -Mt 800 -Is 0.0 -Id 2.0 -It cbr -Il 532 -If 0 -Ii 1 -Iv 30 -Pn cbr -Pi 1 -Pf 1 -Po 0 
f -t 1.105839500 -Hs 1 -Hd 2 -Ni 1 -Nx 350.00 -Ny 300.00 -Nz 100.00 -Ne -1.000000 -Nl RTR -Nw --- -Ma 13a -Md 1 -Ms 0 -Mt 800 -Is 0.0 -Id 2.0 -It cbr -Il 532 -If 0 -Ii 1 -Iv 29 -Pn cbr -Pi 1 -Pf 1 -Po 0 
r -t 1.106129667 -Hs 0 -Hd -2 -Ni 0 -Nx 0.00 -Ny 300.00 -Nz 100.00 -Ne -1.000000 -Nl MAC -Nw --- -Ma 0 -Md 0 -Ms 0 -Mt 0 
s -t 1.106498500 -Hs 1 -Hd -2 -Ni 1 -Nx 350.00 -Ny 300.00 -Nz 100.00 -Ne -1.000000 -Nl MAC -Nw --- -Ma 14ee -Md 2 -Ms 1 -Mt 0 
r -t 1.106851702 -Hs 2 -Hd -2 -Ni 2 -Nx 650.00 -Ny 500.00 -Nz 100.00 -Ne -1.000000 -Nl MAC -Nw --- -Ma 14ee -Md 2 -Ms 1 -Mt 0 
s -t 1.106861702 -Hs 2 -Hd -2 -Ni 2 -Nx 650.00 -Ny 500.00 -Nz 100.00 -Ne -1.000000 -Nl MAC -Nw --- -Ma 13b4 -Md 1 -Ms 0 -Mt 0 
r -t 1.107166904 -Hs 1 -Hd -2 -Ni 1 -Nx 350.00 -Ny 300.00 -Nz 100.00 -Ne -1.000000 -Nl MAC -Nw --- -Ma 13b4 -Md 1 -Ms 0 -Mt 0 
s -t 1.107176904 -Hs 1 -Hd 2 -Ni 1 -Nx 350.00 -Ny 300.00 -Nz 100.00 -Ne -1.000000 -Nl MAC -Nw --- -Ma 13a -Md 2 -Ms 1 -Mt 800 -Is 0.0 -Id 2.0 -It cbr -Il 590 -If 0 -Ii 1 -Iv 29 -Pn cbr -Pi 1 -Pf 1 -Po 0 
r -t 1.111898106 -Hs 2 -Hd 2 -Ni 2 -Nx 650.00 -Ny 500.00 -Nz 100.00 -Ne -1.000000 -Nl MAC -Nw --- -Ma 13a -Md 2 -Ms 1 -Mt 800 -Is 0.0 -Id 2.0 -It cbr -Il 532 -If 0 -Ii 1 -Iv 29 -Pn cbr -Pi 1 -Pf 2 -Po 0 
s -t 1.111908106 -Hs 2 -Hd -2 -Ni 2 -Nx 650.00 -Ny 500.00 -Nz 100.00 -Ne -1.000000 -Nl MAC -Nw --- -Ma 0 -Md 1 -Ms 0 -Mt 0 
r -t 1.111923106 -Hs 2 -Hd 2 -Ni 2 -Nx 650.00 -Ny 500.00 -Nz 100.00 -Ne -1.000000 -Nl AGT -Nw --- -Ma 13a -Md 2 -Ms 1 -Mt 800 -Is 0.0 -Id 2.0 -It cbr -Il 532 -If 0 -Ii 1 -Iv 29 -Pn cbr -Pi 1 -Pf 2 -Po 0 
r -t 1.112213307 -Hs 1 -Hd -2 -Ni 1 -Nx 350.00 -Ny 300.00 -Nz 100.00 -Ne -1.000000 -Nl MAC -Nw --- -Ma 0 -Md 1 -Ms 0 -Mt 0 
s -t 1.200000000 -Hs 0 -Hd -2 -Ni 0 -Nx 0.00 -Ny 300.00 -Nz 100.00 -Ne -1.000000 -Nl AGT -Nw --- -Ma 0 -Md 0 -Ms 0 -Mt 0 -Is 0.0 -Id 2.0 -It cbr -Il 512 -If 0 -Ii 2 -Iv 32 -Pn cbr -Pi 2 -Pf 0 -Po 0 
r -t 1.200000000 -Hs 0 -Hd -2 -Ni 0 -Nx 0.00 -Ny 300.00 -Nz 100.00 -Ne -1.000000 -Nl RTR -Nw --- -Ma 0 -Md 0 -Ms 0 -Mt 0 -Is 0.0 -Id 2.0 -It cbr -Il 512 -If 0 -Ii 2 -Iv 32 -Pn cbr -Pi 2 -Pf 0 -Po 0 
s -t 1.200000000 -Hs 0 -Hd 1 -Ni 0 -Nx 0.00 -Ny 300.00 -Nz 100.00 -Ne -1.000000 -Nl RTR -Nw --- -Ma 0 -Md 0 -Ms 0 -Mt 0 -Is 0.0 -Id 2.0 -It cbr -Il 532 -If 0 -Ii 2 -Iv 30 -Pn cbr -Pi 2 -Pf 0 -Po 0 
s -t 1.200095000 -Hs 0 -Hd -2 -Ni 0 -Nx 0.00 -Ny 300.00 -Nz 100.00 -Ne -1.000000 -Nl MAC -Nw --- -Ma 14ee -Md 1 -Ms 0 -Mt 0 
r -t 1.200448167 -Hs 1 -Hd -2 -Ni 1 -Nx 350.00 -Ny 300.00 -Nz 100.00 -Ne -1.000000 -Nl MAC -Nw --- -Ma 14ee -Md 1 -Ms 0 -Mt 0 
s -t 1.200458167 -Hs 1 -Hd -2 -Ni 1 -Nx 350.00 -Ny 300.00 -Nz 100.00 -Ne -1.000000 -Nl MAC -Nw --- -Ma 13b4 -Md 0 -Ms 0 -Mt 0 
r -t 1.200763333 -Hs 0 -Hd -2 -Ni 0 -Nx 0.00 -Ny 300.00 -Nz 100.00 -Ne -1.000000 -Nl MAC -Nw --- -Ma 13b4 -Md 0 -Ms 0 -Mt 0 
s -t 1.200773333 -Hs 0 -Hd 1 -Ni 0 -Nx 0.00 -Ny 300.00 -Nz 100.00 -Ne -1.000000 -Nl MAC -Nw --- -Ma 13a -Md 1 -Ms 0 -Mt 800 -Is 0.0 -Id 2.0 -It cbr -Il 590 -If 0 -Ii 2 -Iv 30 -Pn cbr -Pi 2 -Pf 0 -Po 0 
r -t 1.205494500 -Hs 1 -Hd 1 -Ni 1 -Nx 350.00 -Ny 300.00 -Nz 100.00 -Ne -1.000000 -Nl MAC -Nw --- -Ma 13a -Md 1 -Ms 0 -Mt 800 -Is 0.0 -Id 2.0 -It cbr -Il 532 -If 0 -Ii 2 -Iv 30 -Pn cbr -Pi 2 -Pf 1 -Po 0 
s -t 1.205504500 -Hs 1 -Hd -2 -Ni 1 -Nx 350.00 -Ny 300.00 -Nz 100.00 -Ne -1.000000 -Nl MAC -Nw --- -Ma 0 -Md 0 -Ms 0 -Mt 0 
r -t 1.205519500 -Hs 1 -Hd 1 -Ni 1 -Nx 350.00 -Ny 300.00 -Nz 100.00 -Ne -1.000000 -Nl RTR -Nw --- -Ma 13a -Md 1 -Ms 0 -Mt 800 -Is 0.0 -Id 2.0 -It cbr -Il 532 -If 0 -Ii 2 -Iv 30 -Pn cbr -Pi 2 -Pf 1 -Po 0 
f -t 1.205519500 -Hs 1 -Hd 2 -Ni 1 -Nx 350.00 -Ny 300.00 -Nz 100.00 -Ne -1.000000 -Nl RTR -Nw --- -Ma 13a -Md 1 -Ms 0 -Mt 800 -Is 0.0 -Id 2.0 -It cbr -Il 532 -If 0 -Ii 2 -Iv 29 -Pn cbr -Pi 2 -Pf 1 -Po 0 
r -t 1.205809667 -Hs 0 -Hd -2 -Ni 0 -Nx 0.00 -Ny 300.00 -Nz 100.00 -Ne -1.000000 -Nl MAC -Nw --- -Ma 0 -Md 0 -Ms 0 -Mt 0 
s -t 1.206098500 -Hs 1 -Hd -2 -Ni 1 -Nx 350.00 -Ny 300.00 -Nz 100.00 -Ne -1.000000 -Nl MAC -Nw --- -Ma 14ee -Md 2 -Ms 1 -Mt 0 
r -t 1.206451702 -Hs 2 -Hd -2 -Ni 2 -Nx 650.00 -Ny 500.00 -Nz 100.00 -Ne -1.000000 -Nl MAC -Nw --- -Ma 14ee -Md 2 -Ms 1 -Mt 0 
s -t 1.206461702 -Hs 2 -Hd -2 -Ni 2 -Nx 650.00 -Ny 500.00 -Nz 100.00 -Ne -1.000000 -Nl MAC -Nw --- -Ma 13b4 -Md 1 -Ms 0 -Mt 0 
r -t 1.206766904 -Hs 1 -Hd -2 -Ni 1 -Nx 350.00 -Ny 300.00 -Nz 100.00 -Ne -1.000000 -Nl MAC -Nw --- -Ma 13b4 -Md 1 -Ms 0 -Mt 0 
s -t 1.206776904 -Hs 1 -Hd 2 -Ni 1 -Nx 350.00 -Ny 300.00 -Nz 100.00 -Ne -1.000000 -Nl MAC -Nw --- -Ma 13a -Md 2 -Ms 1 -Mt 800 -Is 0.0 -Id 2.0 -It cbr -Il 590 -If 0 -Ii 2 -Iv 29 -Pn cbr -Pi 2 -Pf 1 -Po 0 
r -t 1.211498106 -Hs 2 -Hd 2 -Ni 2 -Nx 650.00 -Ny 500.00 -Nz 100.00 -Ne -1.000000 -Nl MAC -Nw --- -Ma 13a -Md 2 -Ms 1 -Mt 800 -Is 0.0 -Id 2.0 -It cbr -Il 532 -If 0 -Ii 2 -Iv 29 -Pn cbr -Pi 2 -Pf 2 -Po 0 
s -t 1.211508106 -Hs 2 -Hd -2 -Ni 2 -Nx 650.00 -Ny 500.00 -Nz 100.00 -Ne -1.000000 -Nl MAC -Nw --- -Ma 0 -Md 1 -Ms 0 -Mt 0 
r -t 1.211523106 -Hs 2 -Hd 2 -Ni 2 -Nx 650.00 -Ny 500.00 -Nz 100.00 -Ne -1.000000 -Nl AGT -Nw --- -Ma 13a -Md 2 -Ms 1 -Mt 800 -Is 0.0 -Id 2.0 -It cbr -Il 532 -If 0 -Ii 2 -Iv 29 -Pn cbr -Pi 2 -Pf 2 -Po 0 
r -t 1.211813307 -Hs 1 -Hd -2 -Ni 1 -Nx 350.00 -Ny 300.00 -Nz 100.00 -Ne -1.000000 -Nl MAC -Nw --- -Ma 0 -Md 1 -Ms 0 -Mt 0 
s -t 1.300000000 -Hs 0 -Hd -2 -Ni 0 -Nx 0.00 -Ny 300.00 -Nz 100.00 -Ne -1.000000 -Nl AGT -Nw --- -Ma 0 -Md 0 -Ms 0 -Mt 0 -Is 0.0 -Id 2.0 -It cbr -Il 512 -If 0 -Ii 3 -Iv 32 -Pn cbr -Pi 3 -Pf 0 -Po 0 
r -t 1.300000000 -Hs 0 -Hd -2 -Ni 0 -Nx 0.00 -Ny 300.00 -Nz 100.00 -Ne -1.000000 -Nl RTR -Nw --- -Ma 0 -Md 0 -Ms 0 -Mt 0 -Is 0.0 -Id 2.0 -It cbr -Il 512 -If 0 -Ii 3 -Iv 32 -Pn cbr -Pi 3 -Pf 0 -Po 0 
s -t 1.300000000 -Hs 0 -Hd 1 -Ni 0 -Nx 0.00 -Ny 300.00 -Nz 100.00 -Ne -1.000000 -Nl RTR -Nw --- -Ma 0 -Md 0 -Ms 0 -Mt 0 -Is 0.0 -Id 2.0 -It cbr -Il 532 -If 0 -Ii 3 -Iv 30 -Pn cbr -Pi 3 -Pf 0 -Po 0 
s -t 1.300655000 -Hs 0 -Hd -2 -Ni 0 -Nx 0.00 -Ny 300.00 -Nz 100.00 -Ne -1.000000 -Nl MAC -Nw --- -Ma 14ee -Md 1 -Ms 0 -Mt 0 
r -t 1.301008167 -Hs 1 -Hd -2 -Ni 1 -Nx 350.00 -Ny 300.00 -Nz 100.00 -Ne -1.000000 -Nl MAC -Nw --- -Ma 14ee -Md 1 -Ms 0 -Mt 0 
s -t 1.301018167 -Hs 1 -Hd -2 -Ni 1 -Nx 350.00 -Ny 300.00 -Nz 100.00 -Ne -1.000000 -Nl MAC -Nw --- -Ma 13b4 -Md 0 -Ms 0 -Mt 0 
r -t 1.301323333 -Hs 0 -Hd -2 -Ni 0 -Nx 0.00 -Ny 300.00 -Nz 100.00 -Ne -1.000000 -Nl MAC -Nw --- -Ma 13b4 -Md 0 -Ms 0 -Mt 0 
s -t 1.301333333 -Hs 0 -Hd 1 -Ni 0 -Nx 0.00 -Ny 300.00 -Nz 100.00 -Ne -1.000000 -Nl MAC -Nw --- -Ma 13a -Md 1 -Ms 0 -Mt 800 -Is 0.0 -Id 2.0 -It cbr -Il 590 -If 0 -Ii 3 -Iv 30 -Pn cbr -Pi 3 -Pf 0 -Po 0 
r -t 1.306054500 -Hs 1 -Hd 1 -Ni 1 -Nx 350.00 -Ny 300.00 -Nz 100.00 -Ne -1.000000 -Nl MAC -Nw --- -Ma 13a -Md 1 -Ms 0 -Mt 800 -Is 0.0 -Id 2.0 -It cbr -Il 532 -If 0 -Ii 3 -Iv 30 -Pn cbr -Pi 3 -Pf 1 -Po 0 
s -t 1.306064500 -Hs 1 -Hd -2 -Ni 1 -Nx 350.00 -Ny 300.00 -Nz 100.00 -Ne -1.000000 -Nl MAC -Nw --- -Ma 0 -Md 0 -Ms 0 -Mt 0 
r -t 1.306079500 -Hs 1 -Hd 1 -Ni 1 -Nx 350.00 -Ny 300.00 -Nz 100.00 -Ne -1.000000 -Nl RTR -Nw --- -Ma 13a -Md 1 -Ms 0 -Mt 800 -Is 0.0 -Id 2.0 -It cbr -Il 532 -If 0 -Ii 3 -Iv 30 -Pn cbr -Pi 3 -Pf 1 -Po 0 
f -t 1.306079500 -Hs 1 -Hd 2 -Ni 1 -Nx 350.00 -Ny 300.00 -Nz 100.00 -Ne -1.000000 -Nl RTR -Nw --- -Ma 13a -Md 1 -Ms 0 -Mt 800 -Is 0.0 -Id 2.0 -It cbr -Il 532 -If 0 -Ii 3 -Iv 29 -Pn cbr -Pi 3 -Pf 1 -Po 0 
r -t 1.306369667 -Hs 0 -Hd -2 -Ni 0 -Nx 0.00 -Ny 300.00 -Nz 100.00 -Ne -1.000000 -Nl MAC -Nw --- -Ma 0 -Md 0 -Ms 0 -Mt 0 
s -t 1.306818500 -Hs 1 -Hd -2 -Ni 1 -Nx 350.00 -Ny 300.00 -Nz 100.00 -Ne -1.000000 -Nl MAC -Nw --- -Ma 14ee -Md 2 -Ms 1 -Mt 0 
r -t 1.307171702 -Hs 2 -Hd -2 -Ni 2 -Nx 650.00 -Ny 500.00 -Nz 100.00 -Ne -1.000000 -Nl MAC -Nw --- -Ma 14ee -Md 2 -Ms 1 -Mt 0 
s -t 1.307181702 -Hs 2 -Hd -2 -Ni 2 -Nx 650.00 -Ny 500.00 -Nz 100.00 -Ne -1.000000 -Nl MAC -Nw --- -Ma 13b4 -Md 1 -Ms 0 -Mt 0 
r -t 1.307486904 -Hs 1 -Hd -2 -Ni 1 -Nx 350.00 -Ny 300.00 -Nz 100.00 -Ne -1.000000 -Nl MAC -Nw --- -Ma 13b4 -Md 1 -Ms 0 -Mt 0 
s -t 1.307496904 -Hs 1 -Hd 2 -Ni 1 -Nx 350.00 -Ny 300.00 -Nz 100.00 -Ne -1.000000 -Nl MAC -Nw --- -Ma 13a -Md 2 -Ms 1 -Mt 800 -Is 0.0 -Id 2.0 -It cbr -Il 590 -If 0 -Ii 3 -Iv 29 -Pn cbr -Pi 3 -Pf 1 -Po 0 
r -t 1.312218106 -Hs 2 -Hd 2 -Ni 2 -Nx 650.00 -Ny 500.00 -Nz 100.00 -Ne -1.000000 -Nl MAC -Nw --- -Ma 13a -Md 2 -Ms 1 -Mt 800 -Is 0.0 -Id 2.0 -It cbr -Il 532 -If 0 -Ii 3 -Iv 29 -Pn cbr -Pi 3 -Pf 2 -Po 0 
s -t 1.312228106 -Hs 2 -Hd -2 -Ni 2 -Nx 650.00 -Ny 500.00 -Nz 100.00 -Ne -1.000000 -Nl MAC -Nw --- -Ma 0 -Md 1 -Ms 0 -Mt 0 
r -t 1.312243106 -Hs 2 -Hd 2 -Ni 2 -Nx 650.00 -Ny 500.00 -Nz 100.00 -Ne -1.000000 -Nl AGT -Nw --- -Ma 13a -Md 2 -Ms 1 -Mt 800 -Is 0.0 -Id 2.0 -It cbr -Il 532 -If 0 -Ii 3 -Iv 29 -Pn cbr -Pi 3 -Pf 2 -Po 0 
r -t 1.312533307 -Hs 1 -Hd -2 -Ni 1 -Nx 350.00 -Ny 300.00 -Nz 100.00 -Ne -1.000000 -Nl MAC -Nw --- -Ma 0 -Md 1 -Ms 0 -Mt 0 
s -t 1.400000000 -Hs 0 -Hd -2 -Ni 0 -Nx 0.00 -Ny 300.00 -Nz 100.00 -Ne -1.000000 -Nl AGT -Nw --- -Ma 0 -Md 0 -Ms 0 -Mt 0 -Is 0.0 -Id 2.0 -It cbr -Il 512 -If 0 -Ii 4 -Iv 32 -Pn cbr -Pi 4 -Pf 0 -Po 0 
r -t 1.400000000 -Hs 0 -Hd -2 -Ni 0 -Nx 0.00 -Ny 300.00 -Nz 100.00 -Ne -1.000000 -Nl RTR -Nw --- -Ma 0 -Md 0 -Ms 0 -Mt 0 -Is 0.0 -Id 2.0 -It cbr -Il 512 -If 0 -Ii 4 -Iv 32 -Pn cbr -Pi 4 -Pf 0 -Po 0 
s -t 1.400000000 -Hs 0 -Hd 1 -Ni 0 -Nx 0.00 -Ny 300.00 -Nz 100.00 -Ne -1.000000 -Nl RTR -Nw --- -Ma 0 -Md 0 -Ms 0 -Mt 0 -Is 0.0 -Id 2.0 -It cbr -Il 532 -If 0 -Ii 4 -Iv 30 -Pn cbr -Pi 4 -Pf 0 -Po 0 
s -t 1.400115000 -Hs 0 -Hd -2 -Ni 0 -Nx 0.00 -Ny 300.00 -Nz 100.00 -Ne -1.000000 -Nl MAC -Nw --- -Ma 14ee -Md 1 -Ms 0 -Mt 0 
r -t 1.400468167 -Hs 1 -Hd -2 -Ni 1 -Nx 350.00 -Ny 300.00 -Nz 100.00 -Ne -1.000000 -Nl MAC -Nw --- -Ma 14ee -Md 1 -Ms 0 -Mt 0 
s -t 1.400478167 -Hs 1 -Hd -2 -Ni 1 -Nx 350.00 -Ny 300.00 -Nz 100.00 -Ne -1.000000 -Nl MAC -Nw --- -Ma 13b4 -Md 0 -Ms 0 -Mt 0 
r -t 1.400783333 -Hs 0 -Hd -2 -Ni 0 -Nx 0.00 -Ny 300.00 -Nz 100.00 -Ne -1.000000 -Nl MAC -Nw --- -Ma 13b4 -Md 0 -Ms 0 -Mt 0 
s -t 1.400793333 -Hs 0 -Hd 1 -Ni 0 -Nx 0.00 -Ny 300.00 -Nz 100.00 -Ne -1.000000 -Nl MAC -Nw --- -Ma 13a -Md 1 -Ms 0 -Mt 800 -Is 0.0 -Id 2.0 -It cbr -Il 590 -If 0 -Ii 4 -Iv 30 -Pn cbr -Pi 4 -Pf 0 -Po 0 
r -t 1.405514500 -Hs 1 -Hd 1 -Ni 1 -Nx 350.00 -Ny 300.00 -Nz 100.00 -Ne -1.000000 -Nl MAC -Nw --- -Ma 13a -Md 1 -Ms 0 -Mt 800 -Is 0.0 -Id 2.0 -It cbr -Il 532 -If 0 -Ii 4 -Iv 30 -Pn cbr -Pi 4 -Pf 1 -Po 0 
s -t 1.405524500 -Hs 1 -Hd -2 -Ni 1 -Nx 350.00 -Ny 300.00 -Nz 100.00 -Ne -1.000000 -Nl MAC -Nw --- -Ma 0 -Md 0 -Ms 0 -Mt 0 
r -t 1.405539500 -Hs 1 -Hd 1 -Ni 1 -Nx 350.00 -Ny 300.00 -Nz 100.00 -Ne -1.000000 -Nl RTR -Nw --- -Ma 13a -Md 1 -Ms 0 -Mt 800 -Is 0.0 -Id 2.0 -It cbr -Il 532 -If 0 -Ii 4 -Iv 30 -Pn cbr -Pi 4 -Pf 1 -Po 0 
f -t 1.405539500 -Hs 1 -Hd 2 -Ni 1 -Nx 350.00 -Ny 300.00 -Nz 100.00 -Ne -1.000000 -Nl RTR -Nw --- -Ma 13a -Md 1 -Ms 0 -Mt 800 -Is 0.0 -Id 2.0 -It cbr -Il 532 -If 0 -Ii 4 -Iv 29 -Pn cbr -Pi 4 -Pf 1 -Po 0 
r -t 1.405829667 -Hs 0 -Hd -2 -Ni 0 -Nx 0.00 -Ny 300.00 -Nz 100.00 -Ne -1.000000 -Nl MAC -Nw --- -Ma 0 -Md 0 -Ms 0 -Mt 0 
s -t 1.406178500 -Hs 1 -Hd -2 -Ni 1 -Nx 350.00 -Ny 300.00 -Nz 100.00 -Ne -1.000000 -Nl MAC -Nw --- -Ma 14ee -Md 2 -Ms 1 -Mt 0 
r -t 1.406531702 -Hs 2 -Hd -2 -Ni 2 -Nx 650.00 -Ny 500.00 -Nz 100.00 -Ne -1.000000 -Nl MAC -Nw --- -Ma 14ee -Md 2 -Ms 1 -Mt 0 
s -t 1.406541702 -Hs 2 -Hd -2 -Ni 2 -Nx 650.00 -Ny 500.00 -Nz 100.00 -Ne -1.000000 -Nl MAC -Nw --- -Ma 13b4 -Md 1 -Ms 0 -Mt 0 
r -t 1.406846904 -Hs 1 -Hd -2 -Ni 1 -Nx 350.00 -Ny 300.00 -Nz 100.00 -Ne -1.000000 -Nl MAC -Nw --- -Ma 13b4 -Md 1 -Ms 0 -Mt 0 
s -t 1.406856904 -Hs 1 -Hd 2 -Ni 1 -Nx 350.00 -Ny 300.00 -Nz 100.00 -Ne -1.000000 -Nl MAC -Nw --- -Ma 13a -Md 2 -Ms 1 -Mt 800 -Is 0.0 -Id 2.0 -It cbr -Il 590 -If 0 -Ii 4 -Iv 29 -Pn cbr -Pi 4 -Pf 1 -Po 0 
r -t 1.411578106 -Hs 2 -Hd 2 -Ni 2 -Nx 650.00 -Ny 500.00 -Nz 100.00 -Ne -1.000000 -Nl MAC -Nw --- -Ma 13a -Md 2 -Ms 1 -Mt 800 -Is 0.0 -Id 2.0 -It cbr -Il 532 -If 0 -Ii 4 -Iv 29 -Pn cbr -Pi 4 -Pf 2 -Po 0 
s -t 1.411588106 -Hs 2 -Hd -2 -Ni 2 -Nx 650.00 -Ny 500.00 -Nz 100.00 -Ne -1.000000 -Nl MAC -Nw --- -Ma 0 -Md 1 -Ms 0 -Mt 0 
r -t 1.411603106 -Hs 2 -Hd 2 -Ni 2 -Nx 650.00 -Ny 500.00 -Nz 100.00 -Ne -1.000000 -Nl AGT -Nw --- -Ma 13a -Md 2 -Ms 1 -Mt 800 -Is 0.0 -Id 2.0 -It cbr -Il 532 -If 0 -Ii 4 -Iv 29 -Pn cbr -Pi 4 -Pf 2 -Po 0 
r -t 1.411893307 -Hs 1 -Hd -2 -Ni 1 -Nx 350.00 -Ny 300.00 -Nz 100.00 -Ne -1.000000 -Nl MAC -Nw --- -Ma 0 -Md 1 -Ms 0 -Mt 0 
s -t 1.500000000 -Hs 0 -Hd -2 -Ni 0 -Nx 0.00 -Ny 300.00 -Nz 100.00 -Ne -1.000000 -Nl AGT -Nw --- -Ma 0 -Md 0 -Ms 0 -Mt 0 -Is 0.0 -Id 2.0 -It cbr -Il 512 -If 0 -Ii 5 -Iv 32 -Pn cbr -Pi 5 -Pf 0 -Po 0 
r -t 1.500000000 -Hs 0 -Hd -2 -Ni 0 -Nx 0.00 -Ny 300.00 -Nz 100.00 -Ne -1.000000 -Nl RTR -Nw --- -Ma 0 -Md 0 -Ms 0 -Mt 0 -Is 0.0 -Id 2.0 -It cbr -Il 512 -If 0 -Ii 5 -Iv 32 -Pn cbr -Pi 5 -Pf 0 -Po 0 
s -t 1.500000000 -Hs 0 -Hd 1 -Ni 0 -Nx 0.00 -Ny 300.00 -Nz 100.00 -Ne -1.000000 -Nl RTR -Nw --- -Ma 0 -Md 0 -Ms 0 -Mt 0 -Is 0.0 -Id 2.0 -It cbr -Il 532 -If 0 -Ii 5 -Iv 30 -Pn cbr -Pi 5 -Pf 0 -Po 0 
s -t 1.500155000 -Hs 0 -Hd -2 -Ni 0 -Nx 0.00 -Ny 300.00 -Nz 100.00 -Ne -1.000000 -Nl MAC -Nw --- -Ma 14ee -Md 1 -Ms 0 -Mt 0 
r -t 1.500508167 -Hs 1 -Hd -2 -Ni 1 -Nx 350.00 -Ny 300.00 -Nz 100.00 -Ne -1.000000 -Nl MAC -Nw --- -Ma 14ee -Md 1 -Ms 0 -Mt 0 
s -t 1.500518167 -Hs 1 -Hd -2 -Ni 1 -Nx 350.00 -Ny 300.00 -Nz 100.00 -Ne -1.000000 -Nl MAC -Nw --- -Ma 13b4 -Md 0 -Ms 0 -Mt 0 
r -t 1.500823333 -Hs 0 -Hd -2 -Ni 0 -Nx 0.00 -Ny 300.00 -Nz 100.00 -Ne -1.000000 -Nl MAC -Nw --- -Ma 13b4 -Md 0 -Ms 0 -Mt 0 
s -t 1.500833333 -Hs 0 -Hd 1 -Ni 0 -Nx 0.00 -Ny 300.00 -Nz 100.00 -Ne -1.000000 -Nl MAC -Nw --- -Ma 13a -Md 1 -Ms 0 -Mt 800 -Is 0.0 -Id 2.0 -It cbr -Il 590 -If 0 -Ii 5 -Iv 30 -Pn cbr -Pi 5 -Pf 0 -Po 0 